                               Psi4 1.2 release

  ==> Input File <==

--------------------------------------------------------------------------
molecule NCOAr{
  0 1
  Ar 0.0 0.0 R
  --
  0 2
  C 0.0 0.0 0.0
  N 0.0 0.0 1.231991
  O 0.0 0.0 -1.175455
}

Rvars = [4.0,4.2,4.4,4.6,4.8,5.0,5.2,5.4,5.6,5.8,6.0,6.2,6.4,6.6,6.8,7.0]
autocm = 219474.63067

table=Table(rows=["R"], cols=["E(Ele)","E(Ex)","E(Ind)","E(Disp)","E(SAPT0)"])

set {
  basis = aug-cc-pvdz
  reference = UHF
}

for R in Rvars:
  NCOAr.R = -R - 0.036898
  energy('sapt0')
  eele = get_variable('SAPT ELST ENERGY') * autocm
  eex = get_variable('SAPT EXCH ENERGY') * autocm
  eind = get_variable('SAPT IND ENERGY') * autocm
  edisp = get_variable('SAPT DISP ENERGY') * autocm
  esapt0 = get_variable('SAPT TOTAL ENERGY') * autocm
  table[R] = [eele,eex,eind,edisp,esapt0]

print(table)
--------------------------------------------------------------------------

  //              Dimer HF             //
    Molecular point group: c1
  Charge       = 0
  Multiplicity = 2
  Basis Set: AUG-CC-PVDZ
    Blend: AUG-CC-PVDZ
  Basis Set: (AUG-CC-PVDZ AUX)
    Blend: AUG-CC-PVDZ-JKFIT
  @DF-UHF Final Energy:  -693.95097852993456
    Total Energy =                       -693.9509785299346731
  //            Monomer A HF           //
    Molecular point group: c1
  Basis Set: AUG-CC-PVDZ
    Blend: AUG-CC-PVDZ
  Basis Set: (AUG-CC-PVDZ AUX)
    Blend: AUG-CC-PVDZ-JKFIT
  @DF-UHF Final Energy:  -526.80111066672418
    Total Energy =                       -526.8011106667241847
  //            Monomer B HF           //
  Basis Set: AUG-CC-PVDZ
    Blend: AUG-CC-PVDZ
  Basis Set: (AUG-CC-PVDZ AUX)
    Blend: AUG-CC-PVDZ-JKFIT
  @DF-UHF Final Energy:  -167.15352867478509
    Total Energy =                       -167.1535286747850648
  Basis Set: AUG-CC-PVDZ
    Blend: AUG-CC-PVDZ
  Basis Set: (AUG-CC-PVDZ AUX)
    Blend: AUG-CC-PVDZ-JKFIT
  //              Dimer HF             //
  Basis Set: AUG-CC-PVDZ
  @DF-UHF Final Energy:  -693.95286301371880
    Total Energy =                       -693.9528630137186838
  @DF-UHF Final Energy:  -526.80107694386481
    Total Energy =                       -526.8010769438648140
  @DF-UHF Final Energy:  -167.15349211807140
    Total Energy =                       -167.1534921180713695
  @DF-UHF Final Energy:  -693.95373161442899
    Total Energy =                       -693.9537316144288752
  @DF-UHF Final Energy:  -526.80105001369884
    Total Energy =                       -526.8010500136988412
  @DF-UHF Final Energy:  -167.15347511611057
    Total Energy =                       -167.1534751161105419
  @DF-UHF Final Energy:  -693.95413448863462
    Total Energy =                       -693.9541344886345087
  @DF-UHF Final Energy:  -526.80103501348844
    Total Energy =                       -526.8010350134884447
  @DF-UHF Final Energy:  -167.15346903396846
    Total Energy =                       -167.1534690339684346
  @DF-UHF Final Energy:  -693.95432014693540
    Total Energy =                       -693.9543201469352880
  @DF-UHF Final Energy:  -526.80102727360634
    Total Energy =                       -526.8010272736063371
  @DF-UHF Final Energy:  -167.15346527561059
    Total Energy =                       -167.1534652756105572
  @DF-UHF Final Energy:  -693.95440136749198
    Total Energy =                       -693.9544013674918688
  @DF-UHF Final Energy:  -526.80102090514799
    Total Energy =                       -526.8010209051479933
  @DF-UHF Final Energy:  -167.15346094440582
    Total Energy =                       -167.1534609444057935
  @DF-UHF Final Energy:  -693.95443338868608
    Total Energy =                       -693.9544333886859704
  @DF-UHF Final Energy:  -526.80101472087176
    Total Energy =                       -526.8010147208717626
  @DF-UHF Final Energy:  -526.80100303201834
    Total Energy =                       -526.8010030320183432
  @DF-UHF Final Energy:  -167.15344362242070
    Total Energy =                       -167.1534436224206956
  @DF-UHF Final Energy:  -693.95443788006662
    Total Energy =                       -693.9544378800666209
  @DF-UHF Final Energy:  -526.80099951670979
    Total Energy =                       -526.8009995167097941
  @DF-UHF Final Energy:  -167.15344015694708
    Total Energy =                       -167.1534401569470560
  @DF-UHF Final Energy:  -693.95443181452094
    Total Energy =                       -693.9544318145208308
  @DF-UHF Final Energy:  -526.80099557218739
    Total Energy =                       -526.8009955721873894
  @DF-UHF Final Energy:  -167.15343710785487
    Total Energy =                       -167.1534371078548418
  @DF-UHF Final Energy:  -693.95442560404683
    Total Energy =                       -693.9544256040468326
  @DF-UHF Final Energy:  -526.80099158476639
    Total Energy =                       -526.8009915847663933
  @DF-UHF Final Energy:  -167.15343446869491
    Total Energy =                       -167.1534344686948828
  @DF-UHF Final Energy:  -693.95441992738927
    Total Energy =                       -693.9544199273893810
  @DF-UHF Final Energy:  -526.80098798332051
    Total Energy =                       -526.8009879833205105
  @DF-UHF Final Energy:  -167.15343221235580
    Total Energy =                       -167.1534322123557672
  @DF-UHF Final Energy:  -693.95441513599781
    Total Energy =                       -693.9544151359978059
  @DF-UHF Final Energy:  -526.80098502286216
    Total Energy =                       -526.8009850228621644
  //            Monomer B HF           //
  @DF-UHF Final Energy:  -167.15343030700669
    Total Energy =                       -167.1534303070066585
    Blend: AUG-CC-PVDZ-JKFIT
  //              Dimer HF             //
  Basis Set: AUG-CC-PVDZ
    Blend: AUG-CC-PVDZ
  Basis Set: (AUG-CC-PVDZ AUX)
    Blend: AUG-CC-PVDZ-JKFIT
  @DF-UHF Final Energy:  -693.95441132279109
    Total Energy =                       -693.9544113227909747
  //            Monomer A HF           //
  Multiplicity = 1
  Basis Set: AUG-CC-PVDZ
    Blend: AUG-CC-PVDZ
  Basis Set: (AUG-CC-PVDZ AUX)
    Blend: AUG-CC-PVDZ-JKFIT
  @DF-UHF Final Energy:  -526.80098276732087
    Total Energy =                       -526.8009827673208747
  //            Monomer B HF           //
    Molecular point group: c1

    Geometry (in Angstrom), charge = 0, multiplicity = 2:

       Center              X                  Y                   Z               Mass
    ------------   -----------------  -----------------  -----------------  -----------------
      Gh(AR)          0.000000000000     0.000000000000    -7.036898000000    39.962383122510
         C            0.000000000000     0.000000000000     0.000000000000    12.000000000000
         N            0.000000000000     0.000000000000     1.231991000000    14.003074004780
         O            0.000000000000     0.000000000000    -1.175455000000    15.994914619560

  Charge       = 0
  Multiplicity = 2
  Basis Set: AUG-CC-PVDZ
    Blend: AUG-CC-PVDZ
  Basis Set: (AUG-CC-PVDZ AUX)
    Blend: AUG-CC-PVDZ-JKFIT

    Orbital Energies [Eh]
    ---------------------

    Alpha Occupied:

       1A    -20.707862     2A    -15.662995     3A    -11.424992
       4A     -1.542460     5A     -1.296062     6A     -0.809529
       7A     -0.728396     8A     -0.696299     9A     -0.647505
      10A     -0.553797    11A     -0.495299

    Alpha Virtual:

      12A      0.054100    13A      0.077537    14A      0.085732
      15A      0.089801    16A      0.099404    17A      0.123870
      18A      0.124013    19A      0.132443    20A      0.176281
      21A      0.183123    22A      0.188190    23A      0.204008
      24A      0.217181    25A      0.249091    26A      0.263352
      27A      0.277580    28A      0.286915    29A      0.346823
      30A      0.402109    31A      0.402133    32A      0.487374
      33A      0.515659    34A      0.572175    35A      0.572247
      36A      0.585265    37A      0.655751    38A      0.657717
      39A      0.673047    40A      0.723500    41A      0.728128
      42A      0.739112    43A      0.753865    44A      0.757495
      45A      0.796373    46A      0.796373    47A      0.796552
      48A      0.796575    49A      0.807898    50A      0.881833
      51A      0.882645    52A      0.899123    53A      1.023126
      54A      1.098591    55A      1.098896    56A      1.194309
      57A      1.213376    58A      1.231045    59A      1.477735
      60A      1.535331    61A      1.564945    62A      1.596713
      63A      1.598193    64A      1.607647    65A      1.695690
      66A      1.719233    67A      1.894254    68A      2.076301
      69A      2.097216    70A      2.289831    71A      2.422043
      72A      2.437776    73A      2.437790    74A      2.483069
      75A      2.491914    76A      2.492934    77A      2.761206
      78A      2.863973    79A      2.894079    80A      3.103757
      81A      3.103757    82A      3.103811    83A      3.103816
      84A      3.106724    85A      3.251334    86A      3.458574
      87A      3.539111    88A      3.539183    89A      3.737275
      90A      3.762556    91A      4.098259    92A      9.178367
      93A     27.716035    94A     27.716036    95A     27.733806
      96A    176.799225

    Beta Occupied:

       1A    -20.686974     2A    -15.636189     3A    -11.435097
       4A     -1.497422     5A     -1.202566     6A     -0.784322
       7A     -0.690153     8A     -0.603030     9A     -0.597443
      10A     -0.450345

    Beta Virtual:

      11A     -0.022489    12A      0.054495    13A      0.078131
      14A      0.089963    15A      0.090441    16A      0.099641
      17A      0.124046    18A      0.124145    19A      0.132465
      20A      0.177755    21A      0.188794    22A      0.192930
      23A      0.218748    24A      0.247454    25A      0.251422
      26A      0.263362    27A      0.292834    28A      0.345605
      29A      0.351300    30A      0.401136    31A      0.401393
      32A      0.490064    33A      0.516289    34A      0.572249
      35A      0.572251    36A      0.585501    37A      0.663135
      38A      0.675732    39A      0.684356    40A      0.719502
      41A      0.721528    42A      0.747546    43A      0.777203
      44A      0.777538    45A      0.796373    46A      0.796373
      47A      0.796565    48A      0.796573    49A      0.808956
      50A      0.884782    51A      0.900562    52A      0.907986
      53A      1.035938    54A      1.110866    55A      1.111149
      56A      1.219171    57A      1.238704    58A      1.239625
      59A      1.488683    60A      1.578827    61A      1.581381
      62A      1.581450    63A      1.594714    64A      1.616748
      65A      1.725593    66A      1.756777    67A      1.894291
      68A      2.099030    69A      2.101707    70A      2.307842
      71A      2.427013    72A      2.437790    73A      2.437792
      74A      2.489465    75A      2.562592    76A      2.563041
      77A      2.771656    78A      2.905561    79A      2.908889
      80A      3.103757    81A      3.103757    82A      3.103812
      83A      3.103816    84A      3.106746    85A      3.270960
      86A      3.468103    87A      3.583880    88A      3.584137
      89A      3.769819    90A      3.777670    91A      4.116145
      92A      9.178367    93A     27.716035    94A     27.716036
      95A     27.733806    96A    176.799225

    Final Occupation by Irrep:
              A
    DOCC [    10 ]
    SOCC [     1 ]

  Energy converged.

  @DF-UHF Final Energy:  -167.15342872296506

   => Energetics <=

    Nuclear Repulsion Energy =             51.9586267144115723
    One-Electron Energy =                -330.0753746118014078
    Two-Electron Energy =                 110.9633191744247824
    Total Energy =                       -167.1534287229650317

  UHF NO Occupations:
  HONO-2 :    9  A 1.9949110
  HONO-1 :   10  A 1.9613472
  HONO-0 :   11  A 1.0000000
  LUNO+0 :   12  A 0.0386528
  LUNO+1 :   13  A 0.0050890
  LUNO+2 :   14  A 0.0017886
  LUNO+3 :   15  A 0.0006454

Properties will be evaluated at   0.000000,   0.000000,   0.000000 [a0]

Properties computed using the SCF density matrix

  Nuclear Dipole Moment: [e a0]
     X:     0.0000      Y:     0.0000      Z:    -1.4734

  Electronic Dipole Moment: [e a0]
     X:    -0.0000      Y:     0.0000      Z:     1.1750

  Dipole Moment: [e a0]
     X:    -0.0000      Y:     0.0000      Z:    -0.2984     Total:     0.2984

  Dipole Moment: [D]
     X:    -0.0000      Y:     0.0000      Z:    -0.7585     Total:     0.7585

*** tstop() called on Touko at Sat Jan  5 23:17:28 2019
Module time:
	user time   =       1.81 seconds =       0.03 minutes
	system time =       0.06 seconds =       0.00 minutes
	total time  =          2 seconds =       0.03 minutes
Total time:
	user time   =     142.92 seconds =       2.38 minutes
	system time =       7.94 seconds =       0.13 minutes
	total time  =        152 seconds =       2.53 minutes
  Constructing Basis Sets for SAPT...

   => Loading Basis Set <=

    Name: (AUG-CC-PVDZ AUX)
    Role: RIFIT
    Keyword: DF_BASIS_SAPT
    atoms 1 entry AR         line   632 file /home/touko/psi4conda/share/psi4/basis/aug-cc-pvdz-ri.gbs
    atoms 2 entry C          line   112 file /home/touko/psi4conda/share/psi4/basis/aug-cc-pvdz-ri.gbs
    atoms 3 entry N          line   158 file /home/touko/psi4conda/share/psi4/basis/aug-cc-pvdz-ri.gbs
    atoms 4 entry O          line   204 file /home/touko/psi4conda/share/psi4/basis/aug-cc-pvdz-ri.gbs

  //>>>>>>>>>>>>>>>>>>>>>>>>>>>>>>>>>>>//
  //               SAPT0               //
  //<<<<<<<<<<<<<<<<<<<<<<<<<<<<<<<<<<<//

*** tstart() called on Touko
*** at Sat Jan  5 23:17:28 2019

	 --------------------------------------------------------
	                         SAPT
	               Rob Parrish and Ed Hohenstein
	                Open-shell: Jérôme Gonthier
	 --------------------------------------------------------

  ==> Sizes <==

   => Resources <=

    Memory (MB):               450

   => Orbital Ranges <=

    ------------------
    Range    M_A   M_B
    ------------------
    natom      1     3
    nso       96    96
    ------------------
      Alpha orbitals
    ------------------
    nmo       96    96
    nocc       9    11
    nvir      87    85
    nfocc      0     0
    naocc      9    11
    navir     87    85
    nfvir      0     0
    ------------------
      Beta orbitals
    ------------------
    nmo       96    96
    nocc       9    10
    nvir      87    86
    nfocc      0     0
    naocc      9    10
    navir     87    86
    nfvir      0     0
    ------------------

   => Primary Basis Set <=

  Basis Set: AUG-CC-PVDZ
    Blend: AUG-CC-PVDZ
    Number of shells: 38
    Number of basis function: 96
    Number of Cartesian functions: 104
    Spherical Harmonics?: true
    Max angular momentum: 2

  SCF TERMS:

  ==> DiskDFJK: Density-Fitted J/K Matrices <==

    J tasked:                  Yes
    K tasked:                  Yes
    wK tasked:                  No
    OpenMP threads:              1
    Integrals threads:           1
    Memory (MB):               448
    Algorithm:                Core
    Integral Cache:           NONE
    Schwarz Cutoff:          1E-12
    Fitting Condition:       1E-12

   => Auxiliary Basis Set <=

  Basis Set: (AUG-CC-PVDZ AUX)
    Blend: AUG-CC-PVDZ-JKFIT
    Number of shells: 124
    Number of basis function: 386
    Number of Cartesian functions: 453
    Spherical Harmonics?: true
    Max angular momentum: 3

    Elst10,r            =     0.000000200980 H
    Exch10              =     0.000000036349 H
    Exch10(S^2)         =     0.000000036349 H

    Exch10(S^2) DM      =     0.000000036349 H

    Ind20,u (A<-B)      =    -0.000000068467 H
    Ind20,u (B<-A)      =    -0.000000010990 H
    Ind20,u             =    -0.000000079458 H
    Exch-Ind20,u (A<-B) =     0.000000011509 H
    Exch-Ind20,u (B<-A) =     0.000000006612 H
    Exch-Ind20,u        =     0.000000018121 H

  ==> CPKS Iterations <==

    Maxiter     =          50
    Convergence =   1.000E-09

    -----------------------------------------
    Iter   Monomer A    Monomer B    Time [s]
    -----------------------------------------
    1      1.746E-01    1.831E-02           1
    2      5.242E-02    2.457E-03           1
    3      7.414E-03    1.172E-03           1
    4      5.803E-04    1.465E-03           1
    5      1.007E-04    5.703E-04           1
    6      1.193E-05    7.141E-05           2
    7      5.375E-07    4.454E-05           2
    8      5.908E-08    3.226E-05           2
    9      2.150E-08    1.811E-05           2
    10     1.892E-09    1.302E-05           2
    11     1.969E-10*   4.742E-06           2
    12     1.969E-10*   1.719E-06           2
    13     1.969E-10*   3.041E-07           2
    14     1.969E-10*   7.910E-08           2
    15     1.969E-10*   2.621E-08           3
    16     1.969E-10*   8.234E-09           3
    17     1.969E-10*   1.672E-09           3
    18     1.969E-10*   5.655E-10*          3
    -----------------------------------------

    Ind20,r (A<-B)      =    -0.000000073030 H
    Ind20,r (B<-A)      =    -0.000000011217 H
    Ind20,r             =    -0.000000084247 H
    Exch-Ind20,r (A<-B) =     0.000000011865 H
    Exch-Ind20,r (B<-A) =     0.000000006729 H
    Exch-Ind20,r        =     0.000000018594 H

  PT2 TERMS:

    Disp20              =    -0.000036965076 H
    Exch-Disp20         =     0.000000006902 H

    SAPT Results
  --------------------------------------------------------------------------------------------------------
    Electrostatics                  0.00020098 [mEh]       0.00012612 [kcal/mol]       0.00052767 [kJ/mol]
      Elst10,r                      0.00020098 [mEh]       0.00012612 [kcal/mol]       0.00052767 [kJ/mol]

    Exchange                        0.00003635 [mEh]       0.00002281 [kcal/mol]       0.00009544 [kJ/mol]
      Exch10                        0.00003635 [mEh]       0.00002281 [kcal/mol]       0.00009544 [kJ/mol]
      Exch10(S^2)                   0.00003635 [mEh]       0.00002281 [kcal/mol]       0.00009544 [kJ/mol]

    Induction                      -0.00006983 [mEh]      -0.00004382 [kcal/mol]      -0.00018335 [kJ/mol]
      Ind20,r                      -0.00008425 [mEh]      -0.00005287 [kcal/mol]      -0.00022119 [kJ/mol]
      Exch-Ind20,r                  0.00001859 [mEh]       0.00001167 [kcal/mol]       0.00004882 [kJ/mol]
      delta HF,r (2)               -0.00000418 [mEh]      -0.00000262 [kcal/mol]      -0.00001098 [kJ/mol]

    Dispersion                     -0.03695817 [mEh]      -0.02319161 [kcal/mol]      -0.09703369 [kJ/mol]
      Disp20                       -0.03696508 [mEh]      -0.02319594 [kcal/mol]      -0.09705181 [kJ/mol]
      Exch-Disp20                   0.00000690 [mEh]       0.00000433 [kcal/mol]       0.00001812 [kJ/mol]

  Total HF                          0.00016749 [mEh]       0.00010510 [kcal/mol]       0.00043976 [kJ/mol]
  Total SAPT0                      -0.03679068 [mEh]      -0.02308650 [kcal/mol]      -0.09659393 [kJ/mol]
  --------------------------------------------------------------------------------------------------------

*** tstop() called on Touko at Sat Jan  5 23:17:33 2019
Module time:
	user time   =       4.56 seconds =       0.08 minutes
	system time =       0.16 seconds =       0.00 minutes
	total time  =          5 seconds =       0.08 minutes
Total time:
	user time   =     147.58 seconds =       2.46 minutes
	system time =       8.10 seconds =       0.14 minutes
	total time  =        157 seconds =       2.62 minutes

    Psi4 stopped on: Saturday, 05 January 2019 11:17PM
    Psi4 wall time for execution: 0:02:36.57

*** Psi4 exiting successfully. Buy a developer a beer!
