                               Psi4 1.2 release

  ==> Input File <==

--------------------------------------------------------------------------
molecule NCOAr{
  0 1
  Ar 0.0 0.0 R
  --
  0 2
  C 0.0 0.0 0.0
  N 0.0 0.0 1.231991
  O 0.0 0.0 -1.175455
}

Rvars = [4.0,4.2,4.4,4.6,4.8,5.0,5.2,5.4,5.6,5.8,6.0,6.2,6.4,6.6,6.8,7.0]
autocm = 219474.63067

table=Table(rows=["R"], cols=["E(Ele)","E(Ex)","E(Ind)","E(Disp)","E(SAPT0)"])

set {
  basis = aug-cc-pvdz
  reference = UHF
}

for R in Rvars:
  NCOAr.R = R - 0.036898
  energy('sapt0')
  eele = get_variable('SAPT ELST ENERGY') * autocm
  eex = get_variable('SAPT EXCH ENERGY') * autocm
  eind = get_variable('SAPT IND ENERGY') * autocm
  edisp = get_variable('SAPT DISP ENERGY') * autocm
  esapt0 = get_variable('SAPT TOTAL ENERGY') * autocm
  table[R] = [eele,eex,eind,edisp,esapt0]

print(table)
--------------------------------------------------------------------------

  //              Dimer HF             //
    Molecular point group: c1
  Charge       = 0
  Multiplicity = 2
  Basis Set: AUG-CC-PVDZ
    Blend: AUG-CC-PVDZ
  Basis Set: (AUG-CC-PVDZ AUX)
    Blend: AUG-CC-PVDZ-JKFIT
  @DF-UHF Final Energy:  -693.94548604001500
    Total Energy =                       -693.9454860400148846
  //            Monomer A HF           //
    Molecular point group: c1
  Basis Set: AUG-CC-PVDZ
    Blend: AUG-CC-PVDZ
  Basis Set: (AUG-CC-PVDZ AUX)
    Blend: AUG-CC-PVDZ-JKFIT
  @DF-UHF Final Energy:  -526.80116545610235
    Total Energy =                       -526.8011654561023533
  //            Monomer B HF           //
  Basis Set: AUG-CC-PVDZ
    Blend: AUG-CC-PVDZ
  Basis Set: (AUG-CC-PVDZ AUX)
    Blend: AUG-CC-PVDZ-JKFIT
  @DF-UHF Final Energy:  -167.15365867314139
    Total Energy =                       -167.1536586731413649
  Basis Set: AUG-CC-PVDZ
    Blend: AUG-CC-PVDZ
  Basis Set: (AUG-CC-PVDZ AUX)
    Blend: AUG-CC-PVDZ-JKFIT
  //              Dimer HF             //
  Basis Set: AUG-CC-PVDZ
  @DF-UHF Final Energy:  -693.95016783255096
    Total Energy =                       -693.9501678325509602
  @DF-UHF Final Energy:  -526.80113233369684
    Total Energy =                       -526.8011323336968417
  @DF-UHF Final Energy:  -167.15360036882936
    Total Energy =                       -167.1536003688293306
  @DF-UHF Final Energy:  -693.95243845762684
    Total Energy =                       -693.9524384576268403
  @DF-UHF Final Energy:  -526.80109727227182
    Total Energy =                       -526.8010972722718179
  @DF-UHF Final Energy:  -167.15354771649123
    Total Energy =                       -167.1535477164912322
  @DF-UHF Final Energy:  -693.95351722995974
    Total Energy =                       -693.9535172299597434
  @DF-UHF Final Energy:  -526.80106505838569
    Total Energy =                       -526.8010650583856886
  @DF-UHF Final Energy:  -167.15350987663365
    Total Energy =                       -167.1535098766336205
  @DF-UHF Final Energy:  -693.95402549729511
    Total Energy =                       -693.9540254972951061
  @DF-UHF Final Energy:  -526.80104229746416
    Total Energy =                       -526.8010422974641642
  @DF-UHF Final Energy:  -167.15348739324958
    Total Energy =                       -167.1534873932495771
  @DF-UHF Final Energy:  -693.95426637369746
    Total Energy =                       -693.9542663736974646
  @DF-UHF Final Energy:  -526.80103033260025
    Total Energy =                       -526.8010303326002486
  @DF-UHF Final Energy:  -167.15347460655437
    Total Energy =                       -167.1534746065543686
  @DF-UHF Final Energy:  -693.95437981776809
    Total Energy =                       -693.9543798177679719
  @DF-UHF Final Energy:  -526.80102434497894
    Total Energy =                       -526.8010243449789414
  @DF-UHF Final Energy:  -526.80100863483722
    Total Energy =                       -526.8010086348372170
  @DF-UHF Final Energy:  -167.15345117678655
    Total Energy =                       -167.1534511767865183
  @DF-UHF Final Energy:  -693.95445060943564
    Total Energy =                       -693.9544506094355256
  @DF-UHF Final Energy:  -526.80100403395909
    Total Energy =                       -526.8010040339590887
  @DF-UHF Final Energy:  -167.15344757782103
    Total Energy =                       -167.1534475778209980
  @DF-UHF Final Energy:  -693.95444563264357
    Total Energy =                       -693.9544456326434556
  @DF-UHF Final Energy:  -526.80100004638359
    Total Energy =                       -526.8010000463835922
  @DF-UHF Final Energy:  -167.15344423899691
    Total Energy =                       -167.1534442389968831
  @DF-UHF Final Energy:  -693.95443960089324
    Total Energy =                       -693.9544396008932381
  @DF-UHF Final Energy:  -526.80099635834802
    Total Energy =                       -526.8009963583480157
  @DF-UHF Final Energy:  -167.15344112840805
    Total Energy =                       -167.1534411284080193
  @DF-UHF Final Energy:  -693.95443332511809
    Total Energy =                       -693.9544333251180888
  @DF-UHF Final Energy:  -526.80099283233972
    Total Energy =                       -526.8009928323397162
  @DF-UHF Final Energy:  -167.15343828272322
    Total Energy =                       -167.1534382827231866
  @DF-UHF Final Energy:  -693.95442732468075
    Total Energy =                       -693.9544273246808643
  @DF-UHF Final Energy:  -526.80098954414211
    Total Energy =                       -526.8009895441421122
  //            Monomer B HF           //
  @DF-UHF Final Energy:  -167.15343573370097
    Total Energy =                       -167.1534357337009737
    Blend: AUG-CC-PVDZ-JKFIT
  //              Dimer HF             //
  Basis Set: AUG-CC-PVDZ
    Blend: AUG-CC-PVDZ
  Basis Set: (AUG-CC-PVDZ AUX)
    Blend: AUG-CC-PVDZ-JKFIT
  @DF-UHF Final Energy:  -693.95442193285589
    Total Energy =                       -693.9544219328558938
  //            Monomer A HF           //
  Multiplicity = 1
  Basis Set: AUG-CC-PVDZ
    Blend: AUG-CC-PVDZ
  Basis Set: (AUG-CC-PVDZ AUX)
    Blend: AUG-CC-PVDZ-JKFIT
  @DF-UHF Final Energy:  -526.80098664296520
    Total Energy =                       -526.8009866429651993
  //            Monomer B HF           //
    Molecular point group: c1

    Geometry (in Angstrom), charge = 0, multiplicity = 2:

       Center              X                  Y                   Z               Mass
    ------------   -----------------  -----------------  -----------------  -----------------
      Gh(AR)          0.000000000000     0.000000000000     6.963102000000    39.962383122510
         C            0.000000000000     0.000000000000     0.000000000000    12.000000000000
         N            0.000000000000     0.000000000000     1.231991000000    14.003074004780
         O            0.000000000000     0.000000000000    -1.175455000000    15.994914619560

  Charge       = 0
  Multiplicity = 2
  Basis Set: AUG-CC-PVDZ
    Blend: AUG-CC-PVDZ
  Basis Set: (AUG-CC-PVDZ AUX)
    Blend: AUG-CC-PVDZ-JKFIT

    Orbital Energies [Eh]
    ---------------------

    Alpha Occupied:

       1A    -20.707866     2A    -15.662992     3A    -11.424993
       4A     -1.542459     5A     -1.296061     6A     -0.809529
       7A     -0.728394     8A     -0.696297     9A     -0.647504
      10A     -0.553797    11A     -0.495298

    Alpha Virtual:

      12A      0.054696    13A      0.080013    14A      0.085868
      15A      0.089979    16A      0.101246    17A      0.125890
      18A      0.126130    19A      0.131735    20A      0.178304
      21A      0.185180    22A      0.203850    23A      0.208316
      24A      0.216856    25A      0.249044    26A      0.262956
      27A      0.277801    28A      0.287201    29A      0.346497
      30A      0.402133    31A      0.402134    32A      0.489106
      33A      0.517954    34A      0.575547    35A      0.575796
      36A      0.591287    37A      0.659673    38A      0.674905
      39A      0.681257    40A      0.722881    41A      0.725105
      42A      0.727415    43A      0.753865    44A      0.756614
      45A      0.799897    46A      0.799897    47A      0.800511
      48A      0.800570    49A      0.818257    50A      0.876902
      51A      0.882982    52A      0.899458    53A      1.023905
      54A      1.098592    55A      1.098899    56A      1.194336
      57A      1.213421    58A      1.230664    59A      1.477035
      60A      1.535519    61A      1.565111    62A      1.597283
      63A      1.598194    64A      1.612676    65A      1.695652
      66A      1.719204    67A      1.903191    68A      2.076406
      69A      2.097313    70A      2.314954    71A      2.424617
      72A      2.441859    73A      2.441876    74A      2.463633
      75A      2.491913    76A      2.492858    77A      2.764507
      78A      2.864054    79A      2.894164    80A      3.107384
      81A      3.107384    82A      3.107656    83A      3.107667
      84A      3.113589    85A      3.252152    86A      3.455633
      87A      3.539113    88A      3.539191    89A      3.737185
      90A      3.762467    91A      4.099994    92A      9.184597
      93A     27.720260    94A     27.720261    95A     27.740675
      96A    176.807339

    Beta Occupied:

       1A    -20.686978     2A    -15.636186     3A    -11.435097
       4A     -1.497420     5A     -1.202568     6A     -0.784321
       7A     -0.690150     8A     -0.603028     9A     -0.597440
      10A     -0.450344

    Beta Virtual:

      11A     -0.022489    12A      0.055191    13A      0.080383
      14A      0.090205    15A      0.090630    16A      0.101621
      17A      0.126071    18A      0.126245    19A      0.131916
      20A      0.179785    21A      0.195042    22A      0.208417
      23A      0.218471    24A      0.247025    25A      0.251504
      26A      0.263292    27A      0.293191    28A      0.345901
      29A      0.351101    30A      0.401137    31A      0.401366
      32A      0.492223    33A      0.518382    34A      0.575830
      35A      0.575962    36A      0.591763    37A      0.677790
      38A      0.685706    39A      0.686348    40A      0.718368
      41A      0.720559    42A      0.734928    43A      0.777204
      44A      0.777543    45A      0.799897    46A      0.799897
      47A      0.800508    48A      0.800543    49A      0.819106
      50A      0.880489    51A      0.900930    52A      0.908408
      53A      1.036350    54A      1.110868    55A      1.111157
      56A      1.219239    57A      1.238782    58A      1.239222
      59A      1.488111    60A      1.578969    61A      1.581382
      62A      1.581464    63A      1.594829    64A      1.622307
      65A      1.725573    66A      1.756768    67A      1.903323
      68A      2.099120    69A      2.101786    70A      2.333431
      71A      2.433815    72A      2.441864    73A      2.441877
      74A      2.464719    75A      2.562592    76A      2.563039
      77A      2.775293    78A      2.905651    79A      2.908988
      80A      3.107384    81A      3.107384    82A      3.107661
      83A      3.107669    84A      3.113640    85A      3.271511
      86A      3.465389    87A      3.583882    88A      3.584139
      89A      3.769730    90A      3.777580    91A      4.117911
      92A      9.184598    93A     27.720260    94A     27.720261
      95A     27.740675    96A    176.807339

    Final Occupation by Irrep:
              A
    DOCC [    10 ]
    SOCC [     1 ]

  Energy converged.

  @DF-UHF Final Energy:  -167.15343348794025

   => Energetics <=

    Nuclear Repulsion Energy =             51.9586267144115723
    One-Electron Energy =                -330.0753978266128570
    Two-Electron Energy =                 110.9633376242610296
    Total Energy =                       -167.1534334879402195

  UHF NO Occupations:
  HONO-2 :    9  A 1.9949111
  HONO-1 :   10  A 1.9613456
  HONO-0 :   11  A 1.0000000
  LUNO+0 :   12  A 0.0386544
  LUNO+1 :   13  A 0.0050889
  LUNO+2 :   14  A 0.0017887
  LUNO+3 :   15  A 0.0006455

Properties will be evaluated at   0.000000,   0.000000,   0.000000 [a0]

Properties computed using the SCF density matrix

  Nuclear Dipole Moment: [e a0]
     X:     0.0000      Y:     0.0000      Z:    -1.4734

  Electronic Dipole Moment: [e a0]
     X:    -0.0000      Y:    -0.0000      Z:     1.1750

  Dipole Moment: [e a0]
     X:    -0.0000      Y:    -0.0000      Z:    -0.2984     Total:     0.2984

  Dipole Moment: [D]
     X:    -0.0000      Y:    -0.0000      Z:    -0.7585     Total:     0.7585

*** tstop() called on Touko at Sat Jan  5 23:30:58 2019
Module time:
	user time   =       1.28 seconds =       0.02 minutes
	system time =       0.04 seconds =       0.00 minutes
	total time  =          1 seconds =       0.02 minutes
Total time:
	user time   =     140.02 seconds =       2.33 minutes
	system time =       6.48 seconds =       0.11 minutes
	total time  =        148 seconds =       2.47 minutes
  Constructing Basis Sets for SAPT...

   => Loading Basis Set <=

    Name: (AUG-CC-PVDZ AUX)
    Role: RIFIT
    Keyword: DF_BASIS_SAPT
    atoms 1 entry AR         line   632 file /home/touko/psi4conda/share/psi4/basis/aug-cc-pvdz-ri.gbs
    atoms 2 entry C          line   112 file /home/touko/psi4conda/share/psi4/basis/aug-cc-pvdz-ri.gbs
    atoms 3 entry N          line   158 file /home/touko/psi4conda/share/psi4/basis/aug-cc-pvdz-ri.gbs
    atoms 4 entry O          line   204 file /home/touko/psi4conda/share/psi4/basis/aug-cc-pvdz-ri.gbs

  //>>>>>>>>>>>>>>>>>>>>>>>>>>>>>>>>>>>//
  //               SAPT0               //
  //<<<<<<<<<<<<<<<<<<<<<<<<<<<<<<<<<<<//

*** tstart() called on Touko
*** at Sat Jan  5 23:30:58 2019

	 --------------------------------------------------------
	                         SAPT
	               Rob Parrish and Ed Hohenstein
	                Open-shell: Jérôme Gonthier
	 --------------------------------------------------------

  ==> Sizes <==

   => Resources <=

    Memory (MB):               450

   => Orbital Ranges <=

    ------------------
    Range    M_A   M_B
    ------------------
    natom      1     3
    nso       96    96
    ------------------
      Alpha orbitals
    ------------------
    nmo       96    96
    nocc       9    11
    nvir      87    85
    nfocc      0     0
    naocc      9    11
    navir     87    85
    nfvir      0     0
    ------------------
      Beta orbitals
    ------------------
    nmo       96    96
    nocc       9    10
    nvir      87    86
    nfocc      0     0
    naocc      9    10
    navir     87    86
    nfvir      0     0
    ------------------

   => Primary Basis Set <=

  Basis Set: AUG-CC-PVDZ
    Blend: AUG-CC-PVDZ
    Number of shells: 38
    Number of basis function: 96
    Number of Cartesian functions: 104
    Spherical Harmonics?: true
    Max angular momentum: 2

  SCF TERMS:

  ==> DiskDFJK: Density-Fitted J/K Matrices <==

    J tasked:                  Yes
    K tasked:                  Yes
    wK tasked:                  No
    OpenMP threads:              1
    Integrals threads:           1
    Memory (MB):               448
    Algorithm:                Core
    Integral Cache:           NONE
    Schwarz Cutoff:          1E-12
    Fitting Condition:       1E-12

   => Auxiliary Basis Set <=

  Basis Set: (AUG-CC-PVDZ AUX)
    Blend: AUG-CC-PVDZ-JKFIT
    Number of shells: 124
    Number of basis function: 386
    Number of Cartesian functions: 453
    Spherical Harmonics?: true
    Max angular momentum: 3

    Elst10,r            =     0.000000546339 H
    Exch10              =     0.000000194232 H
    Exch10(S^2)         =     0.000000194232 H

    Exch10(S^2) DM      =     0.000000194232 H

    Ind20,u (A<-B)      =    -0.000002420963 H
    Ind20,u (B<-A)      =    -0.000000027133 H
    Ind20,u             =    -0.000002448096 H
    Exch-Ind20,u (A<-B) =     0.000000018152 H
    Exch-Ind20,u (B<-A) =     0.000000020814 H
    Exch-Ind20,u        =     0.000000038966 H

  ==> CPKS Iterations <==

    Maxiter     =          50
    Convergence =   1.000E-09

    -----------------------------------------
    Iter   Monomer A    Monomer B    Time [s]
    -----------------------------------------
    1      2.876E-01    3.850E-02           0
    2      4.903E-02    2.314E-03           0
    3      6.692E-03    1.258E-03           0
    4      6.118E-04    1.361E-03           0
    5      8.650E-05    9.739E-04           0
    6      1.637E-05    3.522E-04           1
    7      8.998E-07    1.256E-04           1
    8      9.956E-08    6.732E-05           1
    9      2.247E-08    3.092E-05           1
    10     1.992E-09    8.685E-06           1
    11     1.138E-10*   4.286E-06           1
    12     1.138E-10*   2.093E-06           1
    13     1.138E-10*   4.279E-07           2
    14     1.138E-10*   1.090E-07           2
    15     1.138E-10*   5.013E-08           2
    16     1.138E-10*   1.169E-08           2
    17     1.138E-10*   2.434E-09           2
    18     1.138E-10*   4.185E-10*          2
    -----------------------------------------

    Ind20,r (A<-B)      =    -0.000002549667 H
    Ind20,r (B<-A)      =    -0.000000028290 H
    Ind20,r             =    -0.000002577957 H
    Exch-Ind20,r (A<-B) =     0.000000018552 H
    Exch-Ind20,r (B<-A) =     0.000000021806 H
    Exch-Ind20,r        =     0.000000040357 H

  PT2 TERMS:

    Disp20              =    -0.000048597518 H
    Exch-Disp20         =     0.000000022328 H

    SAPT Results
  --------------------------------------------------------------------------------------------------------
    Electrostatics                  0.00054634 [mEh]       0.00034283 [kcal/mol]       0.00143441 [kJ/mol]
      Elst10,r                      0.00054634 [mEh]       0.00034283 [kcal/mol]       0.00143441 [kJ/mol]

    Exchange                        0.00019423 [mEh]       0.00012188 [kcal/mol]       0.00050996 [kJ/mol]
      Exch10                        0.00019423 [mEh]       0.00012188 [kcal/mol]       0.00050996 [kJ/mol]
      Exch10(S^2)                   0.00019423 [mEh]       0.00012188 [kcal/mol]       0.00050996 [kJ/mol]

    Induction                      -0.00254252 [mEh]      -0.00159546 [kcal/mol]      -0.00667539 [kJ/mol]
      Ind20,r                      -0.00257796 [mEh]      -0.00161769 [kcal/mol]      -0.00676843 [kJ/mol]
      Exch-Ind20,r                  0.00004036 [mEh]       0.00002532 [kcal/mol]       0.00010596 [kJ/mol]
      delta HF,r (2)               -0.00000492 [mEh]      -0.00000309 [kcal/mol]      -0.00001292 [kJ/mol]

    Dispersion                     -0.04857519 [mEh]      -0.03048139 [kcal/mol]      -0.12753416 [kJ/mol]
      Disp20                       -0.04859752 [mEh]      -0.03049540 [kcal/mol]      -0.12759278 [kJ/mol]
      Exch-Disp20                   0.00002233 [mEh]       0.00001401 [kcal/mol]       0.00005862 [kJ/mol]

  Total HF                         -0.00180195 [mEh]      -0.00113074 [kcal/mol]      -0.00473102 [kJ/mol]
  Total SAPT0                      -0.05037714 [mEh]      -0.03161213 [kcal/mol]      -0.13226518 [kJ/mol]
  --------------------------------------------------------------------------------------------------------

*** tstop() called on Touko at Sat Jan  5 23:31:03 2019
Module time:
	user time   =       4.12 seconds =       0.07 minutes
	system time =       0.24 seconds =       0.00 minutes
	total time  =          5 seconds =       0.08 minutes
Total time:
	user time   =     144.20 seconds =       2.40 minutes
	system time =       6.72 seconds =       0.11 minutes
	total time  =        153 seconds =       2.55 minutes

    Psi4 stopped on: Saturday, 05 January 2019 11:31PM
    Psi4 wall time for execution: 0:02:33.03

*** Psi4 exiting successfully. Buy a developer a beer!
