                               Psi4 1.2 release

  ==> Input File <==

--------------------------------------------------------------------------
memory 2 GB

molecule {
  0 2
  C 0.0 0.0 0.0
  N 0.0 0.0 1.22
  O 0.0 0.0 -1.15
}

set {
  basis = def2-TZVP
  reference = UKS
}
optimize('DSD-PBEP86-D3BJ')--------------------------------------------------------------------------

  Memory set to   1.863 GiB by Python driver.
gradient() will perform gradient computation by finite difference of analytic energies.

-------------------------------------------------------------

    Molecular point group: c2v
  Charge       = 0
  Multiplicity = 2
  Basis Set: DEF2-TZVP
    Blend: DEF2-TZVP
  Basis Set: (DEF2-TZVP AUX)
    Blend: DEF2-TZVP-JKFIT
  @DF-UKS Final Energy:  -167.52679351479276
    Total Energy =                       -167.5267935147927005
	 Reference Energy          =    -167.5267935147927574 [Eh]
	 Singles Energy            =      -0.0000000000000083 [Eh]
	 Same-Spin Energy          =      -0.1643752136939441 [Eh]
	 Opposite-Spin Energy      =      -0.4867260587784545 [Eh]
	 Correlation Energy        =      -0.6511012724724069 [Eh]
	 Total Energy              =    -168.1778947872651599 [Eh]
	 SCS Total Energy          =    -167.8160536123702400 [Eh]
    Molecular point group: c2v
  Basis Set: DEF2-TZVP
    Blend: DEF2-TZVP
  Basis Set: (DEF2-TZVP AUX)
    Blend: DEF2-TZVP-JKFIT
  @DF-UKS Final Energy:  -167.52683606488594
    Total Energy =                       -167.5268360648859414
	 Reference Energy          =    -167.5268360648859414 [Eh]
	 Singles Energy            =      -0.0000000000000070 [Eh]
	 Same-Spin Energy          =      -0.1644161857022456 [Eh]
  @DF-UKS Final Energy:  -167.52681782259748
    Total Energy =                       -167.5268178225975362
  @DF-UKS Final Energy:  -167.52681404493279
    Total Energy =                       -167.5268140449327632
  @DF-UKS Final Energy:  -167.52681682962555
    Total Energy =                       -167.5268168296255169
  @DF-UKS Final Energy:  -167.52603532783831
    Total Energy =                       -167.5260353278383434
  @DF-UKS Final Energy:  -167.52604135162386
    Total Energy =                       -167.5260413516238884
  @DF-UKS Final Energy:  -167.52609195448724
    Total Energy =                       -167.5260919544872422
  @DF-UKS Final Energy:  -167.52598664820590
    Total Energy =                       -167.5259866482059294
  @DF-UKS Final Energy:  -167.52604014442662
    Total Energy =                       -167.5260401444266165
  @DF-UKS Final Energy:  -167.52584719133151
    Total Energy =                       -167.5258471913314793
  @DF-UKS Final Energy:  -167.52584506193588
    Total Energy =                       -167.5258450619358257
  @DF-UKS Final Energy:  -167.52590548161797
    Total Energy =                       -167.5259054816179969
  @DF-UKS Final Energy:  -167.52578856101971
    Total Energy =                       -167.5257885610197377
  @DF-UKS Final Energy:  -167.52584780907836
    Total Energy =                       -167.5258478090783001
  @DF-UKS Final Energy:  -167.52584179672692
    Total Energy =                       -167.5258417967269224
  @DF-UKS Final Energy:  -167.52583796974346
    Total Energy =                       -167.5258379697434634
  @DF-UKS Final Energy:  -167.52589949221982
    Total Energy =                       -167.5258994922198781
  @DF-UKS Final Energy:  -167.52578212855369
    Total Energy =                       -167.5257821285537432
	 Reference Energy          =    -167.5257821285536863 [Eh]
	 Singles Energy            =      -0.0000000000001288 [Eh]
	 Same-Spin Energy          =      -0.1657937010528765 [Eh]
	 Opposite-Spin Energy      =      -0.4900136675337781 [Eh]
	 Correlation Energy        =      -0.6558073685867833 [Eh]
	 Total Energy              =    -168.1815894971404646 [Eh]
	 SCS Total Energy          =    -167.8170638499030076 [Eh]
    Molecular point group: c2v
  Charge       = 0
  Multiplicity = 2
  Basis Set: DEF2-TZVP
    Blend: DEF2-TZVP
  Basis Set: (DEF2-TZVP AUX)
    Blend: DEF2-TZVP-JKFIT

    Orbital Energies [Eh]
    ---------------------

    Alpha Occupied:

       1A1   -20.130838     2A1   -15.166220     3A1   -10.992986
       4A1    -1.398105     5A1    -1.170315     6A1    -0.718487
       1B2    -0.651902     1B1    -0.625887     7A1    -0.571588
       2B2    -0.484972     2B1    -0.433330

    Alpha Virtual:

       8A1     0.098616     3B2     0.114000     3B1     0.134432
       9A1     0.220545     4B2     0.256213     4B1     0.262314
      10A1     0.376438    11A1     0.417702     5B2     0.448776
       5B1     0.466285    12A1     0.468983     6B2     0.627268
       6B1     0.640215    13A1     0.670250     1A2     0.674909
      14A1     0.679157    15A1     0.883121     7B2     1.038178
      16A1     1.055027     7B1     1.060807     2A2     1.209240
      17A1     1.210086    18A1     1.344314    19A1     1.444688
       8B2     1.493193     8B1     1.498331     9B2     1.682798
      20A1     1.683050     3A2     1.684427     9B1     1.707860
      21A1     1.708578    10B2     2.079210    10B1     2.101578
      22A1     2.126821    23A1     2.315875    11B2     2.497244
      11B1     2.532296    24A1     2.559529    12B2     2.738440
      12B1     2.738441    13B2     2.906457    13B1     2.924869
      25A1     2.956475     4A2     2.956600     5A2     3.053842
      26A1     3.053906    27A1     3.159455    14B2     3.218053
      14B1     3.243138    28A1     3.367779    29A1     3.657572
      15B2     3.753089    15B1     3.770784    16B1     4.089329
      16B2     4.089337    30A1     4.447928     6A2     4.490864
      31A1     4.496478    32A1     4.721349     7A2     4.723778
      33A1     4.780144    17B2     5.161148    17B1     5.195129
      18B2     5.320617    18B1     5.320629    19B2     5.524353
      19B1     5.553289    34A1     5.600040     8A2     5.815942
      35A1     5.816230    36A1     5.849454    37A1     6.516349
       9A2     6.516403    20B2     6.763536    20B1     6.783828
      21B2     7.047434    21B1     7.070154    38A1     7.227873
      39A1     7.468102    40A1    24.141645    41A1    32.723382
      42A1    44.956188

    Beta Occupied:

       1A1   -20.116625     2A1   -15.145613     3A1   -10.998299
       4A1    -1.369009     5A1    -1.099251     6A1    -0.700478
       1B1    -0.620988     1B2    -0.558417     7A1    -0.538071
       2B1    -0.406012

    Beta Virtual:

       2B2    -0.101168     8A1     0.101235     3B1     0.137186
       3B2     0.195004     9A1     0.224902     4B2     0.255041
       4B1     0.258982    10A1     0.382408    11A1     0.421571
      12A1     0.472029     5B1     0.473450     5B2     0.496318
       6B1     0.644182     6B2     0.660835     1A2     0.677234
      13A1     0.677593    14A1     0.684347    15A1     0.890517
       7B1     1.063434    16A1     1.073392     7B2     1.074476
       2A2     1.251913    17A1     1.253801    18A1     1.349557
      19A1     1.445674     8B2     1.481925     8B1     1.490596
       3A2     1.707835    20A1     1.708293     9B1     1.713072
      21A1     1.714514     9B2     1.721065    10B1     2.107400
      10B2     2.117320    22A1     2.135597    23A1     2.340082
      11B1     2.546144    11B2     2.564295    24A1     2.567293
      12B1     2.730849    12B2     2.730868    13B1     2.925514
      13B2     2.931609     4A2     2.965428    25A1     2.965884
       5A2     3.040967    26A1     3.041062    27A1     3.171814
      14B1     3.247655    14B2     3.254093    28A1     3.373568
      29A1     3.665385    15B2     3.768305    15B1     3.771451
      16B1     4.135929    16B2     4.136639    30A1     4.469171
       6A2     4.526415    31A1     4.528653     7A2     4.779331
      32A1     4.780945    33A1     4.796021    17B1     5.203868
      17B2     5.206752    18B1     5.343343    18B2     5.343398
      19B2     5.554877    19B1     5.558145    34A1     5.615947
       8A2     5.831581    35A1     5.831978    36A1     5.860195
       9A2     6.551943    37A1     6.552770    20B2     6.783353
      20B1     6.786706    21B1     7.074528    21B2     7.076424
      38A1     7.239580    39A1     7.475788    40A1    24.138467
      41A1    32.737918    42A1    44.965020

    Final Occupation by Irrep:
             A1    A2    B1    B2
    DOCC [     7,    0,    2,    1 ]
    SOCC [     0,    0,    0,    1 ]

  Energy converged.

  @DF-UKS Final Energy:  -167.52584164161647

   => Energetics <=

    Nuclear Repulsion Energy =             52.0953682566801248
    One-Electron Energy =                -330.6820420279562995
    Two-Electron Energy =                 117.5733717271188965
    DFT Exchange-Correlation Energy =      -6.5116501974591587
    Empirical Dispersion Energy =          -0.0008894000000000
    VV10 Nonlocal Energy =                  0.0000000000000000
    Total Energy =                       -167.5258416416164380

  UHF NO Occupations:
  HONO-2 :    2 B1 1.9982922
  HONO-1 :    1 B2 1.9812786
  HONO-0 :    2 B2 1.0000000
  LUNO+0 :    3 B2 0.0187214
  LUNO+1 :    3 B1 0.0017078
  LUNO+2 :    8 A1 0.0011981
  LUNO+3 :    9 A1 0.0002581

Properties will be evaluated at   0.000000,   0.000000,   0.000000 [a0]

Properties computed using the SCF density matrix

  Nuclear Dipole Moment: [e a0]
     X:     0.0000      Y:     0.0000      Z:    -0.0091

  Electronic Dipole Moment: [e a0]
     X:     0.0000      Y:     0.0000      Z:    -0.2750

  Dipole Moment: [e a0]
     X:     0.0000      Y:     0.0000      Z:    -0.2841     Total:     0.2841

  Dipole Moment: [D]
     X:     0.0000      Y:     0.0000      Z:    -0.7222     Total:     0.7222

*** tstop() called on linux-en55 at Sun Nov 25 06:19:36 2018
Module time:
	user time   =       4.85 seconds =       0.08 minutes
	system time =       0.02 seconds =       0.00 minutes
	total time  =          5 seconds =       0.08 minutes
Total time:
	user time   =      99.22 seconds =       1.65 minutes
	system time =       0.53 seconds =       0.01 minutes
	total time  =        101 seconds =       1.68 minutes

*** tstart() called on linux-en55
*** at Sun Nov 25 06:19:36 2018

   => Loading Basis Set <=

    Name: (DEF2-TZVP AUX)
    Role: RIFIT
    Keyword: DF_BASIS_MP2
    atoms 1 entry C          line   179 file /home/yuant/psi4conda/share/psi4/basis/def2-tzvp-ri.gbs
    atoms 2 entry N          line   226 file /home/yuant/psi4conda/share/psi4/basis/def2-tzvp-ri.gbs
    atoms 3 entry O          line   273 file /home/yuant/psi4conda/share/psi4/basis/def2-tzvp-ri.gbs

	 --------------------------------------------------------
	                          DF-MP2
	      2nd-Order Density-Fitted Moller-Plesset Theory
	              UMP2 Wavefunction,   1 Threads

	        Rob Parrish, Justin Turney, Andy Simmonett,
	           Ed Hohenstein, and C. David Sherrill
	 --------------------------------------------------------

	 --------------------------------------------------------
	                 NBF =    93, NAUX =   228
	 --------------------------------------------------------
	   CLASS    FOCC     OCC    AOCC    AVIR     VIR    FVIR
	   ALPHA       0      11      11      82      82       0
	    BETA       0      10      10      83      83       0
	 --------------------------------------------------------

	-----------------------------------------------------------
	 ==================> DF-MP2 Energies <====================
	-----------------------------------------------------------
	 Reference Energy          =    -167.5258416416164664 [Eh]
	 Singles Energy            =      -0.0000000000012015 [Eh]
	 Same-Spin Energy          =      -0.1657544919584843 [Eh]
	 Opposite-Spin Energy      =      -0.4899174564512774 [Eh]
	 Correlation Energy        =      -0.6556719484109632 [Eh]
	 Total Energy              =    -168.1815135900274356 [Eh]
	-----------------------------------------------------------
	 ================> DF-SCS-MP2 Energies <==================
	-----------------------------------------------------------
	 SCS Same-Spin Scale       =       0.2200000000000000 [-]
	 SCS Opposite-Spin Scale   =       0.5200000000000000 [-]
	 SCS Same-Spin Energy      =      -0.0364659882308665 [Eh]
	 SCS Opposite-Spin Energy  =      -0.2547570773546642 [Eh]
	 SCS Correlation Energy    =      -0.2912230655867323 [Eh]
	 SCS Total Energy          =    -167.8170647072032011 [Eh]
	-----------------------------------------------------------

    DSD-PBEP86-D3BJ Energy Summary
    -------------------------
    DFT Reference Energy                  =  -167.5258416416164664
    Scaled MP2 Correlation                =    -0.2912230655867323
    @Final double-hybrid DFT total energy =  -167.8170647072032011

*** tstop() called on linux-en55 at Sun Nov 25 06:19:36 2018
Module time:
	user time   =       0.21 seconds =       0.00 minutes
	system time =       0.00 seconds =       0.00 minutes
	total time  =          0 seconds =       0.00 minutes
Total time:
	user time   =      99.43 seconds =       1.66 minutes
	system time =       0.53 seconds =       0.01 minutes
	total time  =        101 seconds =       1.68 minutes

-------------------------------------------------------------

  Computing gradient from energies (fd_1_0).
	Using 3-point formula.
	Energy without displacement: -167.8170647072
	Check energies below for precision!
	Forces are for mass-weighted, symmetry-adapted cartesians (in au).

	 Coord      Energy(-)        Energy(+)        Force
	    0   -167.8170620316  -167.8170630421    -0.0001010552
	    1   -167.8170639391  -167.8170638499     0.0000089177

	Gradient written.

-------------------------------------------------------------
  ## F-D gradient (Symmetry 0) ##
  Irrep: 1 Size: 3 x 3

                 1                   2                   3

    1     0.00000000000000     0.00000000000000    -0.00029585654235
    2     0.00000000000000     0.00000000000000     0.00016247344736
    3     0.00000000000000     0.00000000000000     0.00013338309498

			-----------------------------------------
			 OPTKING 2.0: for geometry optimizations
			  - R.A. King,  Bethel University
			-----------------------------------------

	Previous internal coordinate definitions found.
	---Fragment 1 Geometry and Gradient---
	 C           0.0000000000        0.0000000000        0.0640548245
	 N          -0.0000000000        0.0000000000        2.3944887109
	 O          -0.0000000000        0.0000000000       -2.1443603378
	             0.0000000000        0.0000000000       -0.0002958565
	             0.0000000000        0.0000000000        0.0001624734
	             0.0000000000        0.0000000000        0.0001333831

	---Fragment 1 Intrafragment Coordinates---
	 - Coordinate -           - BOHR/RAD -       - ANG/DEG -
	 R(1,2)           =         2.330434	       1.233212
	 R(1,3)           =         2.208415	       1.168643
	 L(2,1,3)         =         3.141593	     180.000000
	 l(2,1,3)         =         3.141593	     180.000000

	Current energy   :      -167.8170647072

	Energy change for the previous step:
		Projected    :        -0.0000004128
		Actual       :        -0.0000003232
	Energy ratio indicates good step: Trust radius increased to 1.000e+00.

	Performing BFGS update.
	Previous computed or guess Hessian on step 1.
	Steps to be used in Hessian update: 3 2
	Taking RFO optimization step.
	Going to follow RFO solution 1.
	Using RFO vector 1.
	Norm of target step-size    0.00030
	Projected energy change by RFO approximation:        -0.0000000629

	Back-transformation to cartesian coordinates...
	Successfully converged to displaced geometry.

	--- Internal Coordinate Step in ANG or DEG, aJ/ANG or AJ/DEG ---
	 ---------------------------------------------------------------------------
	   Coordinate                Previous        Force       Change         New
	   ----------                --------       ------       ------       ------
	    1 R(1,2)          =      1.233212    -0.001339    -0.000134     1.233078
	    2 R(1,3)          =      1.168643     0.001099     0.000086     1.168729
	    3 L(2,1,3)        =    180.000000    -0.000000     0.000000   180.000000
	    4 l(2,1,3)        =    180.000000     0.000000     0.000000   180.000000
	 ---------------------------------------------------------------------------
	Successfully symmetrized geometry.

  ==> Convergence Check <==

  Measures of convergence in internal coordinates in au.
  Criteria marked as inactive (o), active & met (*), and active & unmet ( ).
  ---------------------------------------------------------------------------------------------
   Step     Total Energy     Delta E     MAX Force     RMS Force      MAX Disp      RMS Disp
  ---------------------------------------------------------------------------------------------
    Convergence Criteria    1.00e-06 *    3.00e-04 *             o    1.20e-03 *             o
  ---------------------------------------------------------------------------------------------
      4    -167.81706471   -3.23e-07 *    1.62e-04 *    1.05e-04 o    2.54e-04 *    1.51e-04 o  ~
  ---------------------------------------------------------------------------------------------

  **** Optimization is complete! (in 4 steps) ****

  ==> Optimization Summary <==

  Measures of convergence in internal coordinates in au.
  --------------------------------------------------------------------------------------------------------------- ~
   Step         Total Energy             Delta E       MAX Force       RMS Force        MAX Disp        RMS Disp  ~
  --------------------------------------------------------------------------------------------------------------- ~
      1    -167.816086816178   -167.816086816178      0.04054524      0.02318887      0.03009085      0.01910931  ~
      2    -167.817049491865     -0.000962675687      0.00547529      0.00283141      0.00462591      0.00247043  ~
      3    -167.817064383961     -0.000014892096      0.00060198      0.00033945      0.00051335      0.00030529  ~
      4    -167.817064707203     -0.000000323243      0.00016247      0.00010511      0.00025402      0.00015065  ~
  --------------------------------------------------------------------------------------------------------------- ~

	Writing optimization data to binary file.
	Final energy is   -167.8170647072032
	Final (previous) structure:
	Cartesian Geometry (in Angstrom)
	    C     0.0000000000   0.0000000000   0.0338963532
	    N    -0.0000000000   0.0000000000   1.2671088520
	    O    -0.0000000000   0.0000000000  -1.1347466178
	Saving final (previous) structure.
	Removing binary optimization data file.
			--------------------------
			 OPTKING Finished Execution
			--------------------------

    Final optimized geometry and variables:
    Molecular point group: c2v
    Full point group: C_inf_v

    Geometry (in Angstrom), charge = 0, multiplicity = 2:

    C            0.000000000000    -0.000000000000     0.033896353230
    N            0.000000000000     0.000000000000     1.267108852048
    O            0.000000000000     0.000000000000    -1.134746617772

	Removing binary optimization data file.
	Cleaning optimization helper files.

    Psi4 stopped on: Sunday, 25 November 2018 06:19AM
    Psi4 wall time for execution: 0:01:41.45

*** Psi4 exiting successfully. Buy a developer a beer!
