                               Psi4 1.2 release

  ==> Input File <==

--------------------------------------------------------------------------
memory 2 GB

molecule {
  0 2
  C 0.0 0.0 0.0
  N 0.0 0.0 1.22
  O 0.0 0.0 -1.15
}

set {
  basis = def2-TZVP
  reference = UKS
}
optimize('PWPB95-D3BJ')--------------------------------------------------------------------------

  Memory set to   1.863 GiB by Python driver.
gradient() will perform gradient computation by finite difference of analytic energies.

-------------------------------------------------------------

    Molecular point group: c2v
  Charge       = 0
  Multiplicity = 2
  Basis Set: DEF2-TZVP
    Blend: DEF2-TZVP
  Basis Set: (DEF2-TZVP AUX)
    Blend: DEF2-TZVP-JKFIT
  @DF-UKS Final Energy:  -167.83542309148686
    Total Energy =                       -167.8354230914868594
	 Reference Energy          =    -167.8354230914868594 [Eh]
	 Singles Energy            =      -0.0000000000000263 [Eh]
	 Same-Spin Energy          =      -0.1841347863988059 [Eh]
	 Opposite-Spin Energy      =      -0.5369430682799200 [Eh]
	 Correlation Energy        =      -0.7210778546787522 [Eh]
	 Total Energy              =    -168.5565009461656132 [Eh]
	 SCS Total Energy          =    -167.9798607768541956 [Eh]
    Molecular point group: c2v
  Basis Set: DEF2-TZVP
    Blend: DEF2-TZVP
  Basis Set: (DEF2-TZVP AUX)
    Blend: DEF2-TZVP-JKFIT
  @DF-UKS Final Energy:  -167.83549944378302
    Total Energy =                       -167.8354994437830214
	 Reference Energy          =    -167.8354994437830214 [Eh]
	 Singles Energy            =      -0.0000000000000226 [Eh]
	 Same-Spin Energy          =      -0.1842107842871294 [Eh]
  @DF-UKS Final Energy:  -167.83545257156570
    Total Energy =                       -167.8354525715657246
  @DF-UKS Final Energy:  -167.83547236604301
    Total Energy =                       -167.8354723660430636
  @DF-UKS Final Energy:  -167.83546335380987
    Total Energy =                       -167.8354633538098426
  @DF-UKS Final Energy:  -167.83534095254194
    Total Energy =                       -167.8353409525418840
  @DF-UKS Final Energy:  -167.83535564888581
    Total Energy =                       -167.8353556488857805
  @DF-UKS Final Energy:  -167.83538056788345
    Total Energy =                       -167.8353805678834192
  @DF-UKS Final Energy:  -167.83531806596164
    Total Energy =                       -167.8353180659616157
  @DF-UKS Final Energy:  -167.83535013664815
    Total Energy =                       -167.8353501366480600
  @DF-UKS Final Energy:  -167.83524322626812
    Total Energy =                       -167.8352432262680907
  @DF-UKS Final Energy:  -167.83523375370916
    Total Energy =                       -167.8352337537091614
  @DF-UKS Final Energy:  -167.83527667548719
    Total Energy =                       -167.8352766754871936
  @DF-UKS Final Energy:  -167.83520225217399
    Total Energy =                       -167.8352022521740423
  @DF-UKS Final Energy:  -167.83524027457474
    Total Energy =                       -167.8352402745747725
  @DF-UKS Final Energy:  -167.83525081245020
    Total Energy =                       -167.8352508124501981
  @DF-UKS Final Energy:  -167.83523453408915
    Total Energy =                       -167.8352345340891247
  @DF-UKS Final Energy:  -167.83528052862715
    Total Energy =                       -167.8352805286271519
  @DF-UKS Final Energy:  -167.83520674367267
    Total Energy =                       -167.8352067436727282
  @DF-UKS Final Energy:  -167.83524445261378
    Total Energy =                       -167.8352444526137788
  @DF-UKS Final Energy:  -167.83525464981145
    Total Energy =                       -167.8352546498113895
  @DF-UKS Final Energy:  -167.83523667598286
    Total Energy =                       -167.8352366759828271
  @DF-UKS Final Energy:  -167.83528332405277
    Total Energy =                       -167.8352833240527957
  @DF-UKS Final Energy:  -167.83520993585734
    Total Energy =                       -167.8352099358573639
	 Reference Energy          =    -167.8352099358573355 [Eh]
	 Singles Energy            =      -0.0000000000002539 [Eh]
	 Same-Spin Energy          =      -0.1860688669822523 [Eh]
	 Opposite-Spin Energy      =      -0.5411246094553930 [Eh]
	 Correlation Energy        =      -0.7271934764378992 [Eh]
	 Total Energy              =    -168.5624034122952253 [Eh]
	 SCS Total Energy          =    -167.9807724558010875 [Eh]
    Molecular point group: c2v
  Charge       = 0
  Multiplicity = 2
  Basis Set: DEF2-TZVP
    Blend: DEF2-TZVP
  Basis Set: (DEF2-TZVP AUX)
    Blend: DEF2-TZVP-JKFIT

    Orbital Energies [Eh]
    ---------------------

    Alpha Occupied:

       1A1   -19.788713     2A1   -14.869668     3A1   -10.734835
       4A1    -1.299741     5A1    -1.087047     6A1    -0.658714
       1B1    -0.601183     1B2    -0.577664     7A1    -0.520562
       2B1    -0.437951     2B2    -0.395895

    Alpha Virtual:

       8A1     0.071823     3B1     0.073896     3B2     0.094049
       9A1     0.196584     4B1     0.225694     4B2     0.232337
      10A1     0.345542    11A1     0.369088     5B1     0.418776
       5B2     0.433376    12A1     0.439376     6B1     0.591433
       6B2     0.602481    13A1     0.630819     1A2     0.632054
      14A1     0.642414    15A1     0.842097    16A1     0.983754
       7B1     0.986634     7B2     1.007027     2A2     1.156533
      17A1     1.157042    18A1     1.284359    19A1     1.390492
       8B1     1.414282     8B2     1.420901    20A1     1.618327
       3A2     1.619457     9B1     1.619698     9B2     1.641559
      21A1     1.644172    10B1     2.002777    10B2     2.022922
      22A1     2.049304    23A1     2.234585    11B1     2.407769
      11B2     2.437554    24A1     2.477581    12B1     2.649569
      12B2     2.649569    13B1     2.802765    13B2     2.819624
      25A1     2.860328     4A2     2.860425     5A2     2.948140
      26A1     2.948163    27A1     3.059495    14B1     3.114961
      14B2     3.137844    28A1     3.262213    29A1     3.549510
      15B1     3.643293    15B2     3.660103    16B1     3.978539
      16B2     3.978545    30A1     4.349536     6A2     4.377401
      31A1     4.383973    32A1     4.592473     7A2     4.594619
      33A1     4.641325    17B1     5.030352    17B2     5.060082
      18B1     5.192552    18B2     5.192561    19B1     5.400062
      19B2     5.426050    34A1     5.458007     8A2     5.679263
      35A1     5.679536    36A1     5.718986     9A2     6.360820
      37A1     6.360826    20B1     6.603484    20B2     6.622563
      21B1     6.892796    21B2     6.913528    38A1     7.062659
      39A1     7.297250    40A1    23.878752    41A1    32.369847
      42A1    44.526634

    Beta Occupied:

       1A1   -19.776845     2A1   -14.853323     3A1   -10.738080
       4A1    -1.275622     5A1    -1.033160     6A1    -0.642696
       1B2    -0.571633     1B1    -0.526176     7A1    -0.491742
       2B2    -0.373349

    Beta Virtual:

       2B1    -0.157956     8A1     0.075340     3B2     0.098932
       3B1     0.139089     9A1     0.200161     4B1     0.227123
       4B2     0.231122    10A1     0.351303    11A1     0.374364
       5B2     0.439311    12A1     0.442092     5B1     0.451206
       6B2     0.606034     6B1     0.614963     1A2     0.636348
      13A1     0.636542    14A1     0.649205    15A1     0.848417
      16A1     0.999208     7B2     1.010798     7B1     1.016028
       2A2     1.190119    17A1     1.190164    18A1     1.289866
      19A1     1.392390     8B1     1.409129     8B2     1.415976
       3A2     1.638607    20A1     1.638647     9B2     1.647544
      21A1     1.650264     9B1     1.650512    10B2     2.028958
      10B1     2.033929    22A1     2.057574    23A1     2.256543
      11B2     2.450461    11B1     2.461444    24A1     2.485134
      12B1     2.646619    12B2     2.646633    13B2     2.821685
      13B1     2.824808     4A2     2.870139    25A1     2.870165
      26A1     2.940971     5A2     2.940989    27A1     3.071210
      14B2     3.143285    14B1     3.145444    28A1     3.268584
      29A1     3.557291    15B1     3.658253    15B2     3.662133
      16B1     4.018740    16B2     4.020171    30A1     4.371944
      31A1     4.411037     6A2     4.412462    32A1     4.641965
       7A2     4.644532    33A1     4.655123    17B2     5.071657
      17B1     5.072344    18B1     5.211825    18B2     5.211918
      19B1     5.430941    19B2     5.433899    34A1     5.473192
      35A1     5.693159     8A2     5.693324    36A1     5.731479
      37A1     6.391161     9A2     6.391686    20B1     6.621561
      20B2     6.626057    21B1     6.917489    21B2     6.918467
      38A1     7.073567    39A1     7.304819    40A1    23.876565
      41A1    32.385203    42A1    44.535926

    Final Occupation by Irrep:
             A1    A2    B1    B2
    DOCC [     7,    0,    1,    2 ]
    SOCC [     0,    0,    1,    0 ]

  Energy converged.

  @DF-UKS Final Energy:  -167.83524744185721

   => Energetics <=

    Nuclear Repulsion Energy =             52.2149998778478377
    One-Electron Energy =                -331.1272524319027752
    Two-Electron Energy =                 121.6967983108100100
    DFT Exchange-Correlation Energy =     -10.6194200886122800
    Empirical Dispersion Energy =          -0.0003731100000000
    VV10 Nonlocal Energy =                  0.0000000000000000
    Total Energy =                       -167.8352474418572058

  UHF NO Occupations:
  HONO-2 :    2 B2 1.9989898
  HONO-1 :    1 B1 1.9887672
  HONO-0 :    2 B1 1.0000000
  LUNO+0 :    3 B1 0.0112328
  LUNO+1 :    3 B2 0.0010102
  LUNO+2 :    8 A1 0.0006495
  LUNO+3 :    9 A1 0.0001534

Properties will be evaluated at   0.000000,   0.000000,   0.000000 [a0]

Properties computed using the SCF density matrix

  Nuclear Dipole Moment: [e a0]
     X:     0.0000      Y:     0.0000      Z:    -0.0091

  Electronic Dipole Moment: [e a0]
     X:     0.0000      Y:     0.0000      Z:    -0.2605

  Dipole Moment: [e a0]
     X:     0.0000      Y:     0.0000      Z:    -0.2696     Total:     0.2696

  Dipole Moment: [D]
     X:     0.0000      Y:     0.0000      Z:    -0.6852     Total:     0.6852

*** tstop() called on linux-en55 at Sun Nov 25 06:16:08 2018
Module time:
	user time   =       7.11 seconds =       0.12 minutes
	system time =       0.02 seconds =       0.00 minutes
	total time  =          7 seconds =       0.12 minutes
Total time:
	user time   =     222.43 seconds =       3.71 minutes
	system time =       0.64 seconds =       0.01 minutes
	total time  =        224 seconds =       3.73 minutes

*** tstart() called on linux-en55
*** at Sun Nov 25 06:16:08 2018

   => Loading Basis Set <=

    Name: (DEF2-TZVP AUX)
    Role: RIFIT
    Keyword: DF_BASIS_MP2
    atoms 1 entry C          line   179 file /home/yuant/psi4conda/share/psi4/basis/def2-tzvp-ri.gbs
    atoms 2 entry N          line   226 file /home/yuant/psi4conda/share/psi4/basis/def2-tzvp-ri.gbs
    atoms 3 entry O          line   273 file /home/yuant/psi4conda/share/psi4/basis/def2-tzvp-ri.gbs

	 --------------------------------------------------------
	                          DF-MP2
	      2nd-Order Density-Fitted Moller-Plesset Theory
	              UMP2 Wavefunction,   1 Threads

	        Rob Parrish, Justin Turney, Andy Simmonett,
	           Ed Hohenstein, and C. David Sherrill
	 --------------------------------------------------------

	 --------------------------------------------------------
	                 NBF =    93, NAUX =   228
	 --------------------------------------------------------
	   CLASS    FOCC     OCC    AOCC    AVIR     VIR    FVIR
	   ALPHA       0      11      11      82      82       0
	    BETA       0      10      10      83      83       0
	 --------------------------------------------------------

	-----------------------------------------------------------
	 ==================> DF-MP2 Energies <====================
	-----------------------------------------------------------
	 Reference Energy          =    -167.8352474418572058 [Eh]
	 Singles Energy            =      -0.0000000000000630 [Eh]
	 Same-Spin Energy          =      -0.1860123746222269 [Eh]
	 Opposite-Spin Energy      =      -0.5409881942676968 [Eh]
	 Correlation Energy        =      -0.7270005688899868 [Eh]
	 Total Energy              =    -168.5622480107471972 [Eh]
	-----------------------------------------------------------
	 ================> DF-SCS-MP2 Energies <==================
	-----------------------------------------------------------
	 SCS Same-Spin Scale       =       0.0000000000000000 [-]
	 SCS Opposite-Spin Scale   =       0.2690000000000000 [-]
	 SCS Same-Spin Energy      =      -0.0000000000000000 [Eh]
	 SCS Opposite-Spin Energy  =      -0.1455258242580105 [Eh]
	 SCS Correlation Energy    =      -0.1455258242580735 [Eh]
	 SCS Total Energy          =    -167.9807732661152784 [Eh]
	-----------------------------------------------------------

    PWPB95-D3BJ Energy Summary
    -------------------------
    DFT Reference Energy                  =  -167.8352474418572058
    Scaled MP2 Correlation                =    -0.1455258242580735
    @Final double-hybrid DFT total energy =  -167.9807732661152784

*** tstop() called on linux-en55 at Sun Nov 25 06:16:08 2018
Module time:
	user time   =       0.20 seconds =       0.00 minutes
	system time =       0.01 seconds =       0.00 minutes
	total time  =          0 seconds =       0.00 minutes
Total time:
	user time   =     222.63 seconds =       3.71 minutes
	system time =       0.65 seconds =       0.01 minutes
	total time  =        224 seconds =       3.73 minutes

-------------------------------------------------------------

  Computing gradient from energies (fd_1_0).
	Using 3-point formula.
	Energy without displacement: -167.9807732661
	Check energies below for precision!
	Forces are for mass-weighted, symmetry-adapted cartesians (in au).

	 Coord      Energy(-)        Energy(+)        Force
	    0   -167.9807712911  -167.9807713359    -0.0000044849
	    1   -167.9807724724  -167.9807724558     0.0000016592

	Gradient written.

-------------------------------------------------------------
  ## F-D gradient (Symmetry 0) ##
  Irrep: 1 Size: 3 x 3

                 1                   2                   3

    1     0.00000000000000     0.00000000000000    -0.00001313024285
    2     0.00000000000000     0.00000000000000     0.00001066283562
    3     0.00000000000000     0.00000000000000     0.00000246740723

			-----------------------------------------
			 OPTKING 2.0: for geometry optimizations
			  - R.A. King,  Bethel University
			-----------------------------------------

	Previous internal coordinate definitions found.
	---Fragment 1 Geometry and Gradient---
	 C           0.0000000000        0.0000000000        0.0720873053
	 N          -0.0000000000        0.0000000000        2.3846524721
	 O          -0.0000000000        0.0000000000       -2.1417752781
	             0.0000000000        0.0000000000       -0.0000131302
	             0.0000000000        0.0000000000        0.0000106628
	             0.0000000000        0.0000000000        0.0000024674

	---Fragment 1 Intrafragment Coordinates---
	 - Coordinate -           - BOHR/RAD -       - ANG/DEG -
	 R(1,2)           =         2.312565	       1.223757
	 R(1,3)           =         2.213863	       1.171526
	 L(2,1,3)         =         3.141593	     180.000000
	 l(2,1,3)         =         3.141593	     180.000000

	Current energy   :      -167.9807732661

	Energy change for the previous step:
		Projected    :        -0.0000002577
		Actual       :        -0.0000001302

	Performing BFGS update.
	Previous computed or guess Hessian on step 1.
	Steps to be used in Hessian update: 4 3
	Taking RFO optimization step.
	Going to follow RFO solution 1.
	Using RFO vector 1.
	Norm of target step-size    0.00002
	Projected energy change by RFO approximation:        -0.0000000002

	Back-transformation to cartesian coordinates...
	Successfully converged to displaced geometry.

	--- Internal Coordinate Step in ANG or DEG, aJ/ANG or AJ/DEG ---
	 ---------------------------------------------------------------------------
	   Coordinate                Previous        Force       Change         New
	   ----------                --------       ------       ------       ------
	    1 R(1,2)          =      1.223757    -0.000088    -0.000008     1.223748
	    2 R(1,3)          =      1.171526     0.000020     0.000003     1.171528
	    3 L(2,1,3)        =    180.000000    -0.000000     0.000000   180.000000
	    4 l(2,1,3)        =    180.000000     0.000000     0.000000   180.000000
	 ---------------------------------------------------------------------------
	Successfully symmetrized geometry.

  ==> Convergence Check <==

  Measures of convergence in internal coordinates in au.
  Criteria marked as inactive (o), active & met (*), and active & unmet ( ).
  ---------------------------------------------------------------------------------------------
   Step     Total Energy     Delta E     MAX Force     RMS Force      MAX Disp      RMS Disp
  ---------------------------------------------------------------------------------------------
    Convergence Criteria    1.00e-06 *    3.00e-04 *             o    1.20e-03 *             o
  ---------------------------------------------------------------------------------------------
      5    -167.98077327   -1.30e-07 *    1.07e-05 *    5.47e-06 o    1.58e-05 *    8.34e-06 o  ~
  ---------------------------------------------------------------------------------------------

  **** Optimization is complete! (in 5 steps) ****

  ==> Optimization Summary <==

  Measures of convergence in internal coordinates in au.
  --------------------------------------------------------------------------------------------------------------- ~
   Step         Total Energy             Delta E       MAX Force       RMS Force        MAX Disp        RMS Disp  ~
  --------------------------------------------------------------------------------------------------------------- ~
      1    -167.979914444465   -167.979914444465      0.04135087      0.02142505      0.03069670      0.01643650  ~
      2    -167.980726169649     -0.000811725183      0.00861260      0.00440882      0.00827414      0.00427963  ~
      3    -167.980770322245     -0.000044152597      0.00153791      0.00097523      0.00192241      0.00119183  ~
      4    -167.980773135943     -0.000002813698      0.00036622      0.00020620      0.00054963      0.00031246  ~
      5    -167.980773266115     -0.000000130172      0.00001066      0.00000547      0.00001578      0.00000834  ~
  --------------------------------------------------------------------------------------------------------------- ~

	Writing optimization data to binary file.
	Final energy is   -167.9807732661153
	Final (previous) structure:
	Cartesian Geometry (in Angstrom)
	    C     0.0000000000   0.0000000000   0.0381469590
	    N    -0.0000000000   0.0000000000   1.2619037387
	    O    -0.0000000000   0.0000000000  -1.1333786631
	Saving final (previous) structure.
	Removing binary optimization data file.
			--------------------------
			 OPTKING Finished Execution
			--------------------------

    Final optimized geometry and variables:
    Molecular point group: c2v
    Full point group: C_inf_v

    Geometry (in Angstrom), charge = 0, multiplicity = 2:

    C            0.000000000000    -0.000000000000     0.038146959004
    N            0.000000000000     0.000000000000     1.261903738659
    O            0.000000000000     0.000000000000    -1.133378663067

	Removing binary optimization data file.
	Cleaning optimization helper files.

    Psi4 stopped on: Sunday, 25 November 2018 06:16AM
    Psi4 wall time for execution: 0:03:44.97

*** Psi4 exiting successfully. Buy a developer a beer!
